LAMMPS data file via write_data, version 27 Jun 2024, timestep = 1000, units = real

28 atoms
14 atom types
21 bonds
12 bond types
21 angles
16 angle types
0 dihedrals
12 dihedral types
0 impropers
4 improper types

-50 50 xlo xhi
-50 50 ylo yhi
-50 50 zlo zhi

Masses

1 12.011
2 12.011
3 12.011
4 1.008
5 1.008
6 14.007
7 65.38
8 1.008
9 15.035
10 15.9994
11 0.0001
12 15.999
13 1.00784
14 0.0001

Atoms # full

6 2 9 0.1546 23.702126738568417 -45.516053186155126 -48.05524095121651
7 2 8 0.4998 23.69515659014201 -45.77584075035666 -46.649658567107636
8 2 11 -0.6544 23.687750583653717 -45.550833807738776 -48.08352316174051
5 2 10 0 23.299942641067002 -44.672772858594854 -48.19719601758203
28 7 13 0.527 42.89022958517382 -31.061929031020888 49.520200036273465
21 6 12 0 -24.757894828130535 -45.67074615514395 -40.459121800598425
22 6 14 -1.054 -24.705402028615353 -45.58079585489148 -40.47248029914983
23 6 13 0.527 -23.7676471496457 -45.5420756200036 -40.51253351978614
24 6 13 0.527 -25.13614715457166 -44.75071732241143 -40.56145218507537
2 1 9 0.1546 -44.385190360988 44.89093938827884 -43.58646963840452
4 1 11 -0.6544 -44.36380496746826 44.853242730067734 -43.56808824009752
3 1 8 0.4998 -43.74870671684202 46.156689775027054 -43.3968264756451
1 1 10 0 -45.30115322843881 44.9916404375578 -43.37695514218667
17 5 12 0 10.468509357612211 45.94131868778052 -42.69901044493137
18 5 14 -1.054 10.504710438318066 45.91600752750244 -42.60375380778148
19 5 13 0.527 10.590370470247175 45.02661974156681 -42.31368578944279
20 5 13 0.527 10.76870409521878 46.56092359084752 -41.97377099019028
13 4 12 0 -19.639947862352894 32.73579272760033 -25.77864243341173
14 4 14 -1.054 -19.649718680881495 32.65928746477447 -25.70739304137764
15 4 13 0.527 -19.473472664638123 32.791327357339554 -24.794162216977668
16 4 13 0.527 -19.92033764607554 31.7883097603989 -25.93245068790952
9 3 10 0 43.41359567302426 -8.564720590144168 35.36318563631706
10 3 9 0.1546 44.34792648505522 -8.475541606454518 35.253194534142196
12 3 11 -0.6544 44.36596574416295 -8.49404196157657 35.213842648657476
11 3 8 0.4998 44.97265254633502 -8.836283598058124 36.48720529740631
25 7 12 0 41.935546216722436 -31.25325782407832 49.29222560337809
26 7 14 -1.054 42.01437691208883 -31.3219691566276 49.301684686174674
27 7 13 0.527 41.89992259757349 -32.24566822339916 49.17453133765938

Bonds

1 9 6 7
2 10 6 8
3 8 5 6
4 11 21 22
5 12 21 23
6 12 21 24
7 9 2 3
8 10 2 4
9 8 1 2
10 11 17 18
11 12 17 19
12 12 17 20
13 11 13 14
14 12 13 15
15 12 13 16
16 8 9 10
17 9 10 11
18 10 10 12
19 11 25 26
20 12 25 27
21 12 25 28

Angles

1 12 7 6 5
2 13 8 6 7
3 13 8 6 5
4 15 22 21 23
5 15 22 21 24
6 16 23 21 24
7 12 3 2 1
8 13 4 2 3
9 13 4 2 1
10 15 18 17 19
11 15 18 17 20
12 16 19 17 20
13 15 14 13 15
14 15 14 13 16
15 16 15 13 16
16 12 11 10 9
17 13 12 10 11
18 13 12 10 9
19 15 26 25 27
20 15 26 25 28
21 16 27 25 28
